                                 *****************
                                 * O   R   C   A *
                                 *****************

                             --- ORCA 5.0.4 ---

FINAL SINGLE POINT ENERGY      -76.123456789012

-------------------------   --------------------
FINAL ENERGY EVALUATION
-------------------------   --------------------

THE ORCA FINISHED SUCCESSFULLY
****ORCA TERMINATED NORMALLY****
