                                 *****************
                                 * O   R   C   A *
                                 *****************

SCF ITERATIONS
  Iter       Energy         Delta-E        Max-DP      RMS-DP
     0   -76.000000000    0.0000000000   0.1234567   0.0123456
     1   -76.100000000   -0.1000000000   0.0234567   0.0023456
     2   -76.120000000   -0.0200000000   0.0034567   0.0003456
     3   -76.123000000   -0.0030000000   0.0004567   0.0000456
     4   -76.123400000   -0.0004000000   0.0000567   0.0000056
     5   -76.123456000   -0.0000560000   0.0000067   0.0000006

                          *** CONVERGENCE OF SCF ACHIEVED ***

FINAL SINGLE POINT ENERGY      -76.123456789012

THE ORCA FINISHED SUCCESSFULLY
****ORCA TERMINATED NORMALLY****
