                                 *****************
                                 * O   R   C   A *
                                 *****************

FINAL SINGLE POINT ENERGY      -76.068123456789

---------------------------------------------------------------------------
                           VIBRATIONAL FREQUENCIES
---------------------------------------------------------------------------

Scaling factor for frequencies =  1.000000000  (already applied!)

   0:         0.00 cm**-1     0.00000
   1:         0.00 cm**-1     0.00000
   2:         0.00 cm**-1     0.00000
   3:         0.00 cm**-1     0.00000
   4:         0.00 cm**-1     0.00000
   5:         0.00 cm**-1     0.00000
   6:      1595.13 cm**-1    75.12345
   7:      3657.05 cm**-1   123.45678
   8:      3756.46 cm**-1    85.67890

---------------------------------------------------------------------------

Zero point energy            ...      0.021234 Eh      13.32 kcal/mol

THE ORCA FINISHED SUCCESSFULLY
****ORCA TERMINATED NORMALLY****
