                                 *****************
                                 * O   R   C   A *
                                 *****************

FINAL SINGLE POINT ENERGY      -230.456789012345

---------------------------------------------------------------------------
                           VIBRATIONAL FREQUENCIES
---------------------------------------------------------------------------

Scaling factor for frequencies =  1.000000000  (already applied!)

   0:         0.00 cm**-1     0.00000
   1:         0.00 cm**-1     0.00000
   2:         0.00 cm**-1     0.00000
   3:         0.00 cm**-1     0.00000
   4:         0.00 cm**-1     0.00000
   5:         0.00 cm**-1     0.00000
   6:      -567.89 cm**-1    23.45678 ***imaginary mode***
   7:      -234.56 cm**-1    12.34567 ***imaginary mode***
   8:      -123.45 cm**-1     8.90123 ***imaginary mode***
   9:       345.67 cm**-1    45.67890
  10:       678.90 cm**-1    67.89012
  11:       901.23 cm**-1    89.01234

---------------------------------------------------------------------------

***WARNING: The vibrational calculation shows 3 imaginary frequencies!
***WARNING: This structure may be a transition state or saddle point

Zero point energy            ...      0.005678 Eh       3.56 kcal/mol

THE ORCA FINISHED SUCCESSFULLY
****ORCA TERMINATED NORMALLY****
