                                 *****************
                                 * O   R   C   A *
                                 *****************

TRANSITION STATE OPTIMIZATION
------------------------------

GEOMETRY OPTIMIZATION CYCLE    1
---------------------------------
SCF Energy    :   -114.123456789
Gradient Norm :      0.080000000

GEOMETRY OPTIMIZATION CYCLE    5
---------------------------------
SCF Energy    :   -114.156789012
Gradient Norm :      0.001000000

                      *** THE OPTIMIZATION HAS CONVERGED ***
                                    HURRAY

FINAL SINGLE POINT ENERGY     -114.156789012345

---------------------------------------------------------------------------
                           VIBRATIONAL FREQUENCIES
---------------------------------------------------------------------------

   0:         0.00 cm**-1     0.00000
   1:         0.00 cm**-1     0.00000
   2:         0.00 cm**-1     0.00000
   3:         0.00 cm**-1     0.00000
   4:         0.00 cm**-1     0.00000
   5:         0.00 cm**-1     0.00000
   6:      -456.78 cm**-1    34.56789 ***imaginary mode***
   7:       234.56 cm**-1    23.45678
   8:       567.89 cm**-1    45.67890
   9:       890.12 cm**-1    67.89012

---------------------------------------------------------------------------

***INFO: Exactly 1 imaginary frequency found - consistent with transition state

THE ORCA FINISHED SUCCESSFULLY
****ORCA TERMINATED NORMALLY****
