                                 *****************
                                 * O   R   C   A *
                                 *****************

INPUT FILE: benzene_freq.inp
Molecular Formula: C6H6
Number of atoms: 12

GEOMETRY OPTIMIZATION CYCLE   12
---------------------------------
Coordinates (Angstroms)
 C    -1.392400    0.000000    0.000000
 C    -0.696200    1.205600    0.000000
 C     0.696200    1.205600    0.000000
 C     1.392400    0.000000    0.000000
 C     0.696200   -1.205600    0.000000
 C    -0.696200   -1.205600    0.000000
 H    -2.478000    0.000000    0.000000
 H    -1.239000    2.145600    0.000000
 H     1.239000    2.145600    0.000000
 H     2.478000    0.000000    0.000000
 H     1.239000   -2.145600    0.000000
 H    -1.239000   -2.145600    0.000000

SCF Energy    :   -232.345678901
Gradient Norm :      0.000123456

                      *** THE OPTIMIZATION HAS CONVERGED ***
                                    HURRAY

FINAL SINGLE POINT ENERGY     -232.345678901234

---------------------------------------------------------------------------
                           VIBRATIONAL FREQUENCIES
---------------------------------------------------------------------------

Number of vibrational modes: 30

   0:         0.00 cm**-1     0.00000
   1:         0.00 cm**-1     0.00000
   2:         0.00 cm**-1     0.00000
   3:         0.00 cm**-1     0.00000
   4:         0.00 cm**-1     0.00000
   5:         0.00 cm**-1     0.00000
   6:       398.56 cm**-1    12.34567
   7:       605.12 cm**-1    23.45678
   8:       673.89 cm**-1    34.56789
   9:       849.23 cm**-1    45.67890
  10:       991.45 cm**-1    56.78901
  11:      1010.23 cm**-1    67.89012
  12:      1038.67 cm**-1    78.90123
  13:      1149.89 cm**-1    89.01234
  14:      1178.34 cm**-1    90.12345
  15:      1309.56 cm**-1   101.23456
  16:      1327.78 cm**-1   112.34567
  17:      1484.90 cm**-1   123.45678
  18:      1596.12 cm**-1   134.56789
  19:      1606.34 cm**-1   145.67890
  20:      3052.56 cm**-1    23.45678
  21:      3063.78 cm**-1    34.56789
  22:      3074.90 cm**-1    45.67890
  23:      3086.12 cm**-1    56.78901
  24:      3097.34 cm**-1    67.89012

---------------------------------------------------------------------------

Zero point energy            ...      0.098765 Eh      61.98 kcal/mol

THE ORCA FINISHED SUCCESSFULLY
****ORCA TERMINATED NORMALLY****
