
                                 *****************
                                 * O   R   C   A *
                                 *****************

           --- An Ab Initio, DFT and Semiempirical electronic structure package ---

INPUT FILE
==========
! B3LYP def2-TZVP

* xyz 0 1
 Fe    0.000000     0.000000     0.000000
 Fe    1.800000     0.000000     0.000000
*

SCF ITERATIONS
==============

ITER       Energy         Delta-E        Max-DP      RMS-DP      [F,P]     Damp
  0  -2541.5678234512   0.000000000000 0.15201953  0.01298466  0.9848625 0.7000
  1  -2541.5624681822   0.005355269000 0.13923874  0.01223142  0.8129438 0.7000
  2  -2541.5718342689  -0.009366086700 0.19045211  0.01516628  0.7629521 0.7000
  3  -2541.5671829449   0.004651324000 0.22130642  0.02122489  0.6189562 0.7000
  4  -2541.5882458736  -0.021062929000 0.18381525  0.01523114  0.5537421 0.7000
  5  -2541.5783123408   0.009933532800 0.16062818  0.01303969  0.4904312 0.7000
  ...
 98  -2541.6012345678  -0.000123456789 0.05234567  0.00456789  0.1234567 0.7000
 99  -2541.6011223344   0.000112233400 0.04987654  0.00432109  0.1123456 0.7000
100  -2541.6012098765  -0.000087542100 0.05123456  0.00445678  0.1212345 0.7000

               ********************************
               *       SCF NOT CONVERGED       *
               ********************************

The SCF did not converge after 100 iterations

ABORTING THE RUN

                         ****ORCA TERMINATED ABNORMALLY****
