
                                 *****************
                                 * O   R   C   A *
                                 *****************

           --- An Ab Initio, DFT and Semiempirical electronic structure package ---

INPUT FILE
==========
! B3LYP def2-SVP Freq

* xyz 0 1
 C     0.000000     0.000000     0.000000
 H     0.000000     0.000000     1.089000
 H     1.026719     0.000000    -0.363000
 H    -0.513360    -0.889165    -0.363000
 H    -0.513360     0.889165    -0.363000
*

SCF ITERATIONS
==============
  ...
               *****************************************************
               *                     SUCCESS                       *
               *           SCF CONVERGED AFTER   8 CYCLES          *
               *****************************************************

FINAL SINGLE POINT ENERGY      -40.235678912345

VIBRATIONAL FREQUENCIES
=======================

Scaling factor for frequencies =  1.000000 (already applied!)

   0:         0.00 cm**-1
   1:         0.00 cm**-1
   2:         0.00 cm**-1
   3:         0.00 cm**-1
   4:         0.00 cm**-1
   5:         0.00 cm**-1
   6:      -125.34 cm**-1   ***imaginary mode***
   7:      -87.21 cm**-1   ***imaginary mode***
   8:      1345.23 cm**-1
   9:      1345.28 cm**-1
  10:      1567.89 cm**-1
  11:      2987.45 cm**-1
  12:      3089.12 cm**-1
  13:      3089.15 cm**-1
  14:      3201.67 cm**-1

                    ***       HURRAY      ***

THERMOCHEMISTRY
===============

                         ****ORCA TERMINATED NORMALLY****
